<PP_INFO>
Generated using Andrea Dal Corso code (rrkj3)
Author: Andrea Dal Corso   Generation date: unknown
Info:   Fe PBE 3d7 4s1 RRKJ3 US
    1        The Pseudo was generated with a Scalar-Relativistic Calculation
  1.70000000000E+00    Local Potential cutoff radius
nl pn  l   occ               Rcut            Rcut US             E pseu
4S  1  0  1.00      2.00000000000      2.20000000000      0.00000000000
4S  1  0  0.00      2.00000000000      2.20000000000      0.00000000000
4P  2  1  0.00      2.20000000000      2.30000000000      0.00000000000
4P  2  1  0.00      2.20000000000      2.30000000000      0.00000000000
3D  3  2  7.00      1.60000000000      2.20000000000      0.00000000000
3D  3  2  0.00      1.60000000000      2.20000000000      0.00000000000
</PP_INFO>


<PP_HEADER>
   0                   Version Number
  Fe                   Element
   US                  Ultrasoft pseudopotential
    T                  Nonlinear Core Correction
 SLA  PW   PBE  PBE    PBE  Exchange-Correlation functional
    8.00000000000      Z valence
  -41.33521037600      Total energy
  0.0000000  0.0000000 Suggested cutoff for wfc and rho
    2                  Max angular momentum component
  957                  Number of points in mesh
    2    6             Number of Wavefunctions, Number of Projectors
 Wavefunctions         nl  l   occ
                       4S  0  1.00
                       3D  2  7.00
</PP_HEADER>


<PP_MESH>
  <PP_R>
  3.50723832906E-05  3.56024344855E-05  3.61404963783E-05  3.66866900353E-05
  3.72411383524E-05  3.78039660826E-05  3.83752998648E-05  3.89552682513E-05
  3.95440017375E-05  4.01416327909E-05  4.07482958811E-05  4.13641275097E-05
  4.19892662415E-05  4.26238527354E-05  4.32680297760E-05  4.39219423058E-05
  4.45857374579E-05  4.52595645890E-05  4.59435753131E-05  4.66379235355E-05
  4.73427654874E-05  4.80582597613E-05  4.87845673464E-05  4.95218516650E-05
  5.02702786091E-05  5.10300165780E-05  5.18012365158E-05  5.25841119505E-05
  5.33788190322E-05  5.41855365733E-05  5.50044460888E-05  5.58357318367E-05
  5.66795808598E-05  5.75361830277E-05  5.84057310795E-05  5.92884206673E-05
  6.01844503998E-05  6.10940218875E-05  6.20173397879E-05  6.29546118515E-05
  6.39060489682E-05  6.48718652156E-05  6.58522779064E-05  6.68475076375E-05
  6.78577783398E-05  6.88833173285E-05  6.99243553542E-05  7.09811266549E-05
  7.20538690086E-05  7.31428237867E-05  7.42482360088E-05  7.53703543972E-05
  7.65094314333E-05  7.76657234142E-05  7.88394905106E-05  8.00309968250E-05
  8.12405104513E-05  8.24683035351E-05  8.37146523352E-05  8.49798372852E-05
  8.62641430571E-05  8.75678586252E-05  8.88912773309E-05  9.02346969489E-05
  9.15984197545E-05  9.29827525909E-05  9.43880069390E-05  9.58144989868E-05
  9.72625497011E-05  9.87324848994E-05  1.00224635323E-04  1.01739336713E-04
  1.03276929883E-04  1.04837760797E-04  1.06422180651E-04  1.08030545943E-04
  1.09663218565E-04  1.11320565873E-04  1.13002960778E-04  1.14710781826E-04
  1.16444413284E-04  1.18204245226E-04  1.19990673622E-04  1.21804100425E-04
  1.23644933666E-04  1.25513587538E-04  1.27410482496E-04  1.29336045351E-04
  1.31290709361E-04  1.33274914335E-04  1.35289106727E-04  1.37333739739E-04
  1.39409273422E-04  1.41516174779E-04  1.43654917873E-04  1.45825983929E-04
  1.48029861447E-04  1.50267046308E-04  1.52538041888E-04  1.54843359172E-04
  1.57183516864E-04  1.59559041511E-04  1.61970467615E-04  1.64418337758E-04
  1.66903202721E-04  1.69425621608E-04  1.71986161975E-04  1.74585399954E-04
  1.77223920384E-04  1.79902316945E-04  1.82621192285E-04  1.85381158164E-04
  1.88182835586E-04  1.91026854940E-04  1.93913856142E-04  1.96844488780E-04
  1.99819412258E-04  2.02839295947E-04  2.05904819333E-04  2.09016672172E-04
  2.12175554645E-04  2.15382177512E-04  2.18637262278E-04  2.21941541350E-04
  2.25295758205E-04  2.28700667557E-04  2.32157035523E-04  2.35665639802E-04
  2.39227269844E-04  2.42842727031E-04  2.46512824856E-04  2.50238389107E-04
  2.54020258051E-04  2.57859282624E-04  2.61756326624E-04  2.65712266902E-04
  2.69727993561E-04  2.73804410156E-04  2.77942433899E-04  2.82142995862E-04
  2.86407041189E-04  2.90735529309E-04  2.95129434150E-04  2.99589744358E-04
  3.04117463523E-04  3.08713610400E-04  3.13379219142E-04  3.18115339530E-04
  3.22923037211E-04  3.27803393938E-04  3.32757507812E-04  3.37786493529E-04
  3.42891482632E-04  3.48073623765E-04  3.53334082932E-04  3.58674043759E-04
  3.64094707758E-04  3.69597294603E-04  3.75183042398E-04  3.80853207960E-04
  3.86609067101E-04  3.92451914913E-04  3.98383066062E-04  4.04403855081E-04
  4.10515636674E-04  4.16719786017E-04  4.23017699069E-04  4.29410792889E-04
  4.35900505949E-04  4.42488298461E-04  4.49175652708E-04  4.55964073371E-04
  4.62855087874E-04  4.69850246725E-04  4.76951123863E-04  4.84159317017E-04
  4.91476448059E-04  4.98904163376E-04  5.06444134234E-04  5.14098057159E-04
  5.21867654315E-04  5.29754673896E-04  5.37760890513E-04  5.45888105599E-04
  5.54138147812E-04  5.62512873446E-04  5.71014166849E-04  5.79643940850E-04
  5.88404137182E-04  5.97296726927E-04  6.06323710956E-04  6.15487120378E-04
  6.24789016998E-04  6.34231493783E-04  6.43816675330E-04  6.53546718345E-04
  6.63423812129E-04  6.73450179069E-04  6.83628075141E-04  6.93959790413E-04
  7.04447649567E-04  7.15094012413E-04  7.25901274429E-04  7.36871867294E-04
  7.48008259438E-04  7.59312956596E-04  7.70788502372E-04  7.82437478814E-04
  7.94262506989E-04  8.06266247579E-04  8.18451401476E-04  8.30820710391E-04
  8.43376957472E-04  8.56122967925E-04  8.69061609659E-04  8.82195793920E-04
  8.95528475958E-04  9.09062655680E-04  9.22801378335E-04  9.36747735193E-04
  9.50904864244E-04  9.65275950901E-04  9.79864228719E-04  9.94672980122E-04
  1.00970553714E-03  1.02496528217E-03  1.04045564871E-03  1.05618012215E-03
  1.07214224059E-03  1.08834559555E-03  1.10479383286E-03  1.12149065344E-03
  1.13843981415E-03  1.15564512862E-03  1.17311046812E-03  1.19083976243E-03
  1.20883700071E-03  1.22710623241E-03  1.24565156819E-03  1.26447718083E-03
  1.28358730617E-03  1.30298624406E-03  1.32267835936E-03  1.34266808288E-03
  1.36295991237E-03  1.38355841359E-03  1.40446822130E-03  1.42569404028E-03
  1.44724064643E-03  1.46911288783E-03  1.49131568584E-03  1.51385403616E-03
  1.53673301003E-03  1.55995775530E-03  1.58353349766E-03  1.60746554173E-03
  1.63175927233E-03  1.65642015565E-03  1.68145374049E-03  1.70686565952E-03
  1.73266163052E-03  1.75884745770E-03  1.78542903298E-03  1.81241233732E-03
  1.83980344208E-03  1.86760851038E-03  1.89583379848E-03  1.92448565718E-03
  1.95357053327E-03  1.98309497097E-03  2.01306561340E-03  2.04348920409E-03
  2.07437258848E-03  2.10572271544E-03  2.13754663890E-03  2.16985151938E-03
  2.20264462559E-03  2.23593333615E-03  2.26972514113E-03  2.30402764385E-03
  2.33884856251E-03  2.37419573196E-03  2.41007710547E-03  2.44650075649E-03
  2.48347488051E-03  2.52100779685E-03  2.55910795058E-03  2.59778391439E-03
  2.63704439055E-03  2.67689821282E-03  2.71735434848E-03  2.75842190033E-03
  2.80011010875E-03  2.84242835375E-03  2.88538615713E-03  2.92899318456E-03
  2.97325924782E-03  3.01819430695E-03  3.06380847253E-03  3.11011200795E-03
  3.15711533169E-03  3.20482901970E-03  3.25326380775E-03  3.30243059389E-03
  3.35234044085E-03  3.40300457854E-03  3.45443440662E-03  3.50664149702E-03
  3.55963759655E-03  3.61343462956E-03  3.66804470060E-03  3.72348009717E-03
  3.77975329248E-03  3.83687694822E-03  3.89486391746E-03  3.95372724751E-03
  4.01348018288E-03  4.07413616821E-03  4.13570885138E-03  4.19821208648E-03
  4.26165993701E-03  4.32606667901E-03  4.39144680426E-03  4.45781502357E-03
  4.52518627007E-03  4.59357570257E-03  4.66299870898E-03  4.73347090977E-03
  4.80500816148E-03  4.87762656031E-03  4.95134244568E-03  5.02617240400E-03
  5.10213327231E-03  5.17924214213E-03  5.25751636329E-03  5.33697354781E-03
  5.41763157389E-03  5.49950858993E-03  5.58262301860E-03  5.66699356101E-03
  5.75263920087E-03  5.83957920882E-03  5.92783314674E-03  6.01742087211E-03
  6.10836254257E-03  6.20067862038E-03  6.29438987703E-03  6.38951739796E-03
  6.48608258725E-03  6.58410717250E-03  6.68361320963E-03  6.78462308794E-03
  6.88715953506E-03  6.99124562213E-03  7.09690476896E-03  7.20416074931E-03
  7.31303769621E-03  7.42356010745E-03  7.53575285103E-03  7.64964117080E-03
  7.76525069210E-03  7.88260742757E-03  8.00173778296E-03  8.12266856311E-03
  8.24542697796E-03  8.37004064866E-03  8.49653761382E-03  8.62494633579E-03
  8.75529570707E-03  8.88761505682E-03  9.02193415745E-03  9.15828323133E-03
  9.29669295758E-03  9.43719447896E-03  9.57981940891E-03  9.72459983864E-03
  9.87156834437E-03  1.00207579946E-02  1.01722023577E-02  1.03259355092E-02
  1.04819920398E-02  1.06404070628E-02  1.08012162222E-02  1.09644557009E-02
  1.11301622284E-02  1.12983730894E-02  1.14691261319E-02  1.16424597762E-02
  1.18184130231E-02  1.19970254628E-02  1.21783372838E-02  1.23623892821E-02
  1.25492228701E-02  1.27388800862E-02  1.29314036041E-02  1.31268367423E-02
  1.33252234742E-02  1.35266084376E-02  1.37310369450E-02  1.39385549936E-02
  1.41492092758E-02  1.43630471899E-02  1.45801168501E-02  1.48004670982E-02
  1.50241475138E-02  1.52512084260E-02  1.54817009244E-02  1.57156768708E-02
  1.59531889108E-02  1.61942904857E-02  1.64390358442E-02  1.66874800551E-02
  1.69396790195E-02  1.71956894831E-02  1.74555690493E-02  1.77193761923E-02
  1.79871702696E-02  1.82590115362E-02  1.85349611573E-02  1.88150812229E-02
  1.90994347612E-02  1.93880857529E-02  1.96810991456E-02  1.99785408687E-02
  2.02804778478E-02  2.05869780200E-02  2.08981103490E-02  2.12139448411E-02
  2.15345525602E-02  2.18600056445E-02  2.21903773223E-02  2.25257419286E-02
  2.28661749219E-02  2.32117529010E-02  2.35625536225E-02  2.39186560179E-02
  2.42801402118E-02  2.46470875397E-02  2.50195805663E-02  2.53977031040E-02
  2.57815402321E-02  2.61711783156E-02  2.65667050245E-02  2.69682093542E-02
  2.73757816447E-02  2.77895136016E-02  2.82094983163E-02  2.86358302872E-02
  2.90686054406E-02  2.95079211529E-02  2.99538762720E-02  3.04065711396E-02
  3.08661076139E-02  3.13325890927E-02  3.18061205363E-02  3.22868084911E-02
  3.27747611141E-02  3.32700881966E-02  3.37729011893E-02  3.42833132272E-02
  3.48014391552E-02  3.53273955539E-02  3.58613007656E-02  3.64032749213E-02
  3.69534399674E-02  3.75119196934E-02  3.80788397596E-02  3.86543277254E-02
  3.92385130780E-02  3.98315272615E-02  4.04335037068E-02  4.10445778609E-02
  4.16648872183E-02  4.22945713510E-02  4.29337719407E-02  4.35826328103E-02
  4.42412999560E-02  4.49099215810E-02  4.55886481277E-02  4.62776323126E-02
  4.69770291600E-02  4.76869960372E-02  4.84076926896E-02  4.91392812771E-02
  4.98819264102E-02  5.06357951872E-02  5.14010572317E-02  5.21778847310E-02
  5.29664524745E-02  5.37669378932E-02  5.45795210997E-02  5.54043849288E-02
  5.62417149782E-02  5.70916996508E-02  5.79545301966E-02  5.88304007563E-02
  5.97195084043E-02  6.06220531936E-02  6.15382382007E-02  6.24682695709E-02
  6.34123565654E-02  6.43707116076E-02  6.53435503315E-02  6.63310916299E-02
  6.73335577037E-02  6.83511741121E-02  6.93841698230E-02  7.04327772648E-02
  7.14972323787E-02  7.25777746715E-02  7.36746472698E-02  7.47880969745E-02
  7.59183743166E-02  7.70657336131E-02  7.82304330249E-02  7.94127346141E-02
  8.06129044036E-02  8.18312124367E-02  8.30679328379E-02  8.43233438744E-02
  8.55977280189E-02  8.68913720135E-02  8.82045669332E-02  8.95376082527E-02
  9.08907959118E-02  9.22644343833E-02  9.36588327419E-02  9.50743047330E-02
  9.65111688437E-02  9.79697483746E-02  9.94503715121E-02  1.00953371403E-01
  1.02479086228E-01  1.04027859280E-01  1.05600039039E-01  1.07195979253E-01
  1.08816039014E-01  1.10460582842E-01  1.12129980768E-01  1.13824608413E-01
  1.15544847075E-01  1.17291083815E-01  1.19063711543E-01  1.20863129109E-01
  1.22689741389E-01  1.24543959378E-01  1.26426200284E-01  1.28336887618E-01
  1.30276451293E-01  1.32245327719E-01  1.34243959902E-01  1.36272797543E-01
  1.38332297137E-01  1.40422922082E-01  1.42545142777E-01  1.44699436731E-01
  1.46886288668E-01  1.49106190640E-01  1.51359642133E-01  1.53647150185E-01
  1.55969229494E-01  1.58326402537E-01  1.60719199689E-01  1.63148159339E-01
  1.65613828013E-01  1.68116760497E-01  1.70657519962E-01  1.73236678088E-01
  1.75854815198E-01  1.78512520383E-01  1.81210391638E-01  1.83949035996E-01
  1.86729069663E-01  1.89551118158E-01  1.92415816455E-01  1.95323809122E-01
  1.98275750471E-01  2.01272304699E-01  2.04314146045E-01  2.07401958937E-01
  2.10536438143E-01  2.13718288937E-01  2.16948227247E-01  2.20226979824E-01
  2.23555284400E-01  2.26933889858E-01  2.30363556399E-01  2.33845055712E-01
  2.37379171149E-01  2.40966697901E-01  2.44608443177E-01  2.48305226384E-01
  2.52057879315E-01  2.55867246332E-01  2.59734184559E-01  2.63659564073E-01
  2.67644268101E-01  2.71689193219E-01  2.75795249552E-01  2.79963360979E-01
  2.84194465343E-01  2.88489514662E-01  2.92849475338E-01  2.97275328381E-01
  3.01768069628E-01  3.06328709963E-01  3.10958275550E-01  3.15657808061E-01
  3.20428364911E-01  3.25271019495E-01  3.30186861430E-01  3.35176996802E-01
  3.40242548412E-01  3.45384656032E-01  3.50604476655E-01  3.55903184766E-01
  3.61281972594E-01  3.66742050390E-01  3.72284646695E-01  3.77911008616E-01
  3.83622402108E-01  3.89420112259E-01  3.95305443579E-01  4.01279720290E-01
  4.07344286632E-01  4.13500507157E-01  4.19749767040E-01  4.26093472392E-01
  4.32533050572E-01  4.39069950514E-01  4.45705643047E-01  4.52441621230E-01
  4.59279400687E-01  4.66220519946E-01  4.73266540789E-01  4.80419048600E-01
  4.87679652724E-01  4.95049986828E-01  5.02531709267E-01  5.10126503460E-01
  5.17836078269E-01  5.25662168381E-01  5.33606534697E-01  5.41670964736E-01
  5.49857273026E-01  5.58167301523E-01  5.66602920017E-01  5.75166026559E-01
  5.83858547883E-01  5.92682439843E-01  6.01639687853E-01  6.10732307331E-01
  6.19962344155E-01  6.29331875121E-01  6.38843008415E-01  6.48497884080E-01
  6.58298674506E-01  6.68247584910E-01  6.78346853840E-01  6.88598753674E-01
  6.99005591132E-01  7.09569707798E-01  7.20293480641E-01  7.31179322556E-01
  7.42229682904E-01  7.53447048061E-01  7.64833941983E-01  7.76392926769E-01
  7.88126603238E-01  8.00037611518E-01  8.12128631636E-01  8.24402384122E-01
  8.36861630623E-01  8.49509174521E-01  8.62347861567E-01  8.75380580520E-01
  8.88610263797E-01  9.02039888132E-01  9.15672475247E-01  9.29511092533E-01
  9.43558853735E-01  9.57818919660E-01  9.72294498883E-01  9.86988848470E-01
  1.00190527471E+00  1.01704713387E+00  1.03241783292E+00  1.04802083034E+00
  1.06385963687E+00  1.07993781630E+00  1.09625898630E+00  1.11282681919E+00
  1.12964504282E+00  1.14671744134E+00  1.16404785613E+00  1.18164018660E+00
  1.19949839109E+00  1.21762648778E+00  1.23602855557E+00  1.25470873499E+00
  1.27367122918E+00  1.29292030477E+00  1.31246029288E+00  1.33229559009E+00
  1.35243065943E+00  1.37287003137E+00  1.39361830486E+00  1.41468014836E+00
  1.43606030085E+00  1.45776357297E+00  1.47979484804E+00  1.50215908320E+00
  1.52486131048E+00  1.54790663800E+00  1.57130025104E+00  1.59504741326E+00
  1.61915346788E+00  1.64362383887E+00  1.66846403215E+00  1.69367963687E+00
  1.71927632667E+00  1.74525986088E+00  1.77163608593E+00  1.79841093657E+00
  1.82559043726E+00  1.85318070350E+00  1.88118794322E+00  1.90961845816E+00
  1.93847864531E+00  1.96777499833E+00  1.99751410903E+00  2.02770266883E+00
  2.05834747029E+00  2.08945540861E+00  2.12103348321E+00  2.15308879929E+00
  2.18562856944E+00  2.21866011524E+00  2.25219086892E+00  2.28622837505E+00
  2.32078029221E+00  2.35585439472E+00  2.39145857441E+00  2.42760084237E+00
  2.46428933077E+00  2.50153229465E+00  2.53933811386E+00  2.57771529486E+00
  2.61667247267E+00  2.65621841283E+00  2.69636201333E+00  2.73711230667E+00
  2.77847846182E+00  2.82046978635E+00  2.86309572847E+00  2.90636587922E+00
  2.95028997455E+00  2.99487789757E+00  3.04013968075E+00  3.08608550819E+00
  3.13272571788E+00  3.18007080408E+00  3.22813141963E+00  3.27691837836E+00
  3.32644265755E+00  3.37671540038E+00  3.42774791841E+00  3.47955169419E+00
  3.53213838378E+00  3.58551981940E+00  3.63970801211E+00  3.69471515448E+00
  3.75055362335E+00  3.80723598260E+00  3.86477498601E+00  3.92318358010E+00
  3.98247490705E+00  4.04266230765E+00  4.10375932433E+00  4.16577970416E+00
  4.22873740200E+00  4.29264658360E+00  4.35752162879E+00  4.42337713473E+00
  4.49022791919E+00  4.55808902387E+00  4.62697571782E+00  4.69690350081E+00
  4.76788810692E+00  4.83994550796E+00  4.91309191715E+00  4.98734379276E+00
  5.06271784176E+00  5.13923102364E+00  5.21690055417E+00  5.29574390934E+00
  5.37577882923E+00  5.45702332204E+00  5.53949566811E+00  5.62321442408E+00
  5.70819842702E+00  5.79446679869E+00  5.88203894983E+00  5.97093458455E+00
  6.06117370474E+00  6.15277661459E+00  6.24576392513E+00  6.34015655891E+00
  6.43597575466E+00  6.53324307210E+00  6.63198039680E+00  6.73220994507E+00
  6.83395426898E+00  6.93723626142E+00  7.04207916130E+00  7.14850655869E+00
  7.25654240022E+00  7.36621099440E+00  7.47753701713E+00  7.59054551724E+00
  7.70526192211E+00  7.82171204342E+00  7.93992208293E+00  8.05991863842E+00
  8.18172870960E+00  8.30537970425E+00  8.43089944438E+00  8.55831617245E+00
  8.68765855777E+00  8.81895570291E+00  8.95223715029E+00  9.08753288880E+00
  9.22487336055E+00  9.36428946772E+00  9.50581257952E+00  9.64947453926E+00
  9.79530767148E+00  9.94334478925E+00  1.00936192015E+01  1.02461647207E+01
  1.04010156702E+01  1.05582068921E+01  1.07177737551E+01  1.08797521624E+01
  1.10441785598E+01  1.12110899441E+01  1.13805238708E+01  1.15525184634E+01
  1.17271124214E+01  1.19043450292E+01  1.20842561648E+01  1.22668863091E+01
  1.24522765545E+01  1.26404686147E+01  1.28315048336E+01  1.30254281953E+01
  1.32222823333E+01  1.34221115405E+01  1.36249607795E+01  1.38308756922E+01
  1.40399026102E+01  1.42520885656E+01  1.44674813010E+01  1.46861292807E+01
  1.49080817015E+01  1.51333885035E+01  1.53621003818E+01  1.55942687975E+01
  1.58299459895E+01  1.60691849861E+01  1.63120396171E+01  1.65585645259E+01
  1.68088151815E+01  1.70628478914E+01  1.73207198141E+01  1.75824889719E+01
  1.78482142638E+01  1.81179554793E+01  1.83917733111E+01  1.86697293696E+01
  1.89518861959E+01  1.92383072766E+01  1.95290570575E+01  1.98242009587E+01
  2.01238053888E+01  2.04279377599E+01  2.07366665033E+01  2.10500610840E+01
  2.13681920174E+01  2.16911308840E+01  2.20189503467E+01  2.23517241660E+01
  2.26895272176E+01  2.30324355086E+01  2.33805261947E+01  2.37338775978E+01
  2.40925692235E+01  2.44566817790E+01  2.48262971910E+01  2.52014986246E+01
  2.55823705017E+01  2.59689985201E+01  2.63614696728E+01  2.67598722673E+01
  2.71642959460E+01  2.75748317058E+01  2.79915719192E+01  2.84146103543E+01
  2.88440421966E+01  2.92799640701E+01  2.97224740590E+01  3.01716717300E+01
  3.06276581545E+01  3.10905359312E+01  3.15604092096E+01  3.20373837133E+01
  3.25215667635E+01  3.30130673034E+01  3.35119959227E+01  3.40184648825E+01
  3.45325881404E+01  3.50544813763E+01  3.55842620184E+01  3.61220492696E+01
  3.66679641343E+01  3.72221294456E+01  3.77846698930E+01  3.83557120506E+01
  3.89353844052E+01  3.95238173855E+01  4.01211433916E+01  4.07274968241E+01
  4.13430141152E+01  4.19678337590E+01  4.26020963423E+01  4.32459445771E+01
  4.38995233319E+01  4.45629796646E+01  4.52364628557E+01  4.59201244419E+01
  4.66141182497E+01  4.73186004308E+01  4.80337294967E+01  4.87596663543E+01
  4.94965743425E+01  5.02446192688E+01  5.10039694464E+01  5.17747957323E+01
  5.25572715657E+01  5.33515730069E+01  5.41578787771E+01  5.49763702985E+01
  5.58072317352E+01  5.66506500344E+01  5.75068149689E+01  5.83759191794E+01
  5.92581582179E+01
  </PP_R>
  <PP_RAB>
  5.26085749358E-07  5.34036517282E-07  5.42107445675E-07  5.50300350530E-07
  5.58617075285E-07  5.67059491240E-07  5.75629497972E-07  5.84329023769E-07
  5.93160026062E-07  6.02124491864E-07  6.11224438216E-07  6.20461912645E-07
  6.29838993623E-07  6.39357791031E-07  6.49020446639E-07  6.58829134586E-07
  6.68786061868E-07  6.78893468835E-07  6.89153629697E-07  6.99568853033E-07
  7.10141482312E-07  7.20873896420E-07  7.31768510196E-07  7.42827774975E-07
  7.54054179136E-07  7.65450248669E-07  7.77018547738E-07  7.88761679257E-07
  8.00682285482E-07  8.12783048599E-07  8.25066691331E-07  8.37535977550E-07
  8.50193712897E-07  8.63042745415E-07  8.76085966193E-07  8.89326310009E-07
  9.02766755997E-07  9.16410328313E-07  9.30260096819E-07  9.44319177772E-07
  9.58590734523E-07  9.73077978234E-07  9.87784168595E-07  1.00271261456E-06
  1.01786667510E-06  1.03324975993E-06  1.04886533031E-06  1.06471689982E-06
  1.08080803513E-06  1.09714235680E-06  1.11372354013E-06  1.13055531596E-06
  1.14764147150E-06  1.16498585121E-06  1.18259235766E-06  1.20046495237E-06
  1.21860765677E-06  1.23702455303E-06  1.25571978503E-06  1.27469755928E-06
  1.29396214586E-06  1.31351787938E-06  1.33336915996E-06  1.35352045423E-06
  1.37397629632E-06  1.39474128886E-06  1.41582010408E-06  1.43721748480E-06
  1.45893824552E-06  1.48098727349E-06  1.50336952985E-06  1.52609005070E-06
  1.54915394824E-06  1.57256641196E-06  1.59633270976E-06  1.62045818915E-06
  1.64494827847E-06  1.66980848809E-06  1.69504441167E-06  1.72066172739E-06
  1.74666619926E-06  1.77306367839E-06  1.79986010433E-06  1.82706150638E-06
  1.85467400498E-06  1.88270381306E-06  1.91115723744E-06  1.94004068026E-06
  1.96936064042E-06  1.99912371503E-06  2.02933660091E-06  2.06000609609E-06
  2.09113910133E-06  2.12274262169E-06  2.15482376809E-06  2.18738975893E-06
  2.22044792170E-06  2.25400569461E-06  2.28807062832E-06  2.32265038757E-06
  2.35775275296E-06  2.39338562266E-06  2.42955701423E-06  2.46627506637E-06
  2.50354804081E-06  2.54138432412E-06  2.57979242962E-06  2.61878099931E-06
  2.65835880577E-06  2.69853475417E-06  2.73931788428E-06  2.78071737246E-06
  2.82274253379E-06  2.86540282410E-06  2.90870784213E-06  2.95266733170E-06
  2.99729118387E-06  3.04258943920E-06  3.08857229000E-06  3.13525008259E-06
  3.18263331967E-06  3.23073266268E-06  3.27955893417E-06  3.32912312025E-06
  3.37943637308E-06  3.43051001335E-06  3.48235553285E-06  3.53498459703E-06
  3.58840904766E-06  3.64264090546E-06  3.69769237284E-06  3.75357583660E-06
  3.81030387076E-06  3.86788923936E-06  3.92634489936E-06  3.98568400353E-06
  4.04591990341E-06  4.10706615234E-06  4.16913650849E-06  4.23214493793E-06
  4.29610561784E-06  4.36103293964E-06  4.42694151225E-06  4.49384616537E-06
  4.56176195284E-06  4.63070415600E-06  4.70068828712E-06  4.77173009294E-06
  4.84384555817E-06  4.91705090908E-06  4.99136261718E-06  5.06679740294E-06
  5.14337223948E-06  5.22110435648E-06  5.30001124399E-06  5.38011065638E-06
  5.46142061637E-06  5.54395941904E-06  5.62774563597E-06  5.71279811940E-06
  5.79913600652E-06  5.88677872370E-06  5.97574599093E-06  6.06605782622E-06
  6.15773455011E-06  6.25079679025E-06  6.34526548604E-06  6.44116189334E-06
  6.53850758923E-06  6.63732447692E-06  6.73763479061E-06  6.83946110056E-06
  6.94282631811E-06  7.04775370087E-06  7.15426685795E-06  7.26238975525E-06
  7.37214672089E-06  7.48356245064E-06  7.59666201351E-06  7.71147085738E-06
  7.82801481473E-06  7.94632010844E-06  8.06641335770E-06  8.18832158399E-06
  8.31207221718E-06  8.43769310169E-06  8.56521250274E-06  8.69465911274E-06
  8.82606205773E-06  8.95945090391E-06  9.09485566434E-06  9.23230680566E-06
  9.37183525497E-06  9.51347240675E-06  9.65725012995E-06  9.80320077517E-06
  9.95135718193E-06  1.01017526860E-05  1.02544211271E-05  1.04093968562E-05
  1.05667147435E-05  1.07264101862E-05  1.08885191164E-05  1.10530780094E-05
  1.12201238916E-05  1.13896943489E-05  1.15618275356E-05  1.17365621822E-05
  1.19139376048E-05  1.20939937137E-05  1.22767710221E-05  1.24623106559E-05
  1.26506543621E-05  1.28418445189E-05  1.30359241449E-05  1.32329369088E-05
  1.34329271394E-05  1.36359398352E-05  1.38420206750E-05  1.40512160279E-05
  1.42635729637E-05  1.44791392635E-05  1.46979634308E-05  1.49200947018E-05
  1.51455830571E-05  1.53744792325E-05  1.56068347306E-05  1.58427018323E-05
  1.60821336088E-05  1.63251839332E-05  1.65719074928E-05  1.68223598016E-05
  1.70765972122E-05  1.73346769293E-05  1.75966570219E-05  1.78625964364E-05
  1.81325550106E-05  1.84065934861E-05  1.86847735228E-05  1.89671577124E-05
  1.92538095925E-05  1.95447936610E-05  1.98401753905E-05  2.01400212431E-05
  2.04443986855E-05  2.07533762039E-05  2.10670233195E-05  2.13854106042E-05
  2.17086096964E-05  2.20366933175E-05  2.23697352875E-05  2.27078105424E-05
  2.30509951504E-05  2.33993663295E-05  2.37530024648E-05  2.41119831259E-05
  2.44763890849E-05  2.48463023347E-05  2.52218061074E-05  2.56029848928E-05
  2.59899244578E-05  2.63827118655E-05  2.67814354947E-05  2.71861850598E-05
  2.75970516313E-05  2.80141276558E-05  2.84375069772E-05  2.88672848576E-05
  2.93035579990E-05  2.97464245645E-05  3.01959842010E-05  3.06523380614E-05
  3.11155888271E-05  3.15858407316E-05  3.20631995835E-05  3.25477727906E-05
  3.30396693839E-05  3.35390000422E-05  3.40458771170E-05  3.45604146578E-05
  3.50827284376E-05  3.56129359794E-05  3.61511565820E-05  3.66975113474E-05
  3.72521232076E-05  3.78151169527E-05  3.83866192587E-05  3.89667587159E-05
  3.95556658582E-05  4.01534731923E-05  4.07603152272E-05  4.13763285050E-05
  4.20016516312E-05  4.26364253063E-05  4.32807923569E-05  4.39348977684E-05
  4.45988887173E-05  4.52729146043E-05  4.59571270880E-05  4.66516801193E-05
  4.73567299753E-05  4.80724352954E-05  4.87989571163E-05  4.95364589084E-05
  5.02851066127E-05  5.10450686781E-05  5.18165160994E-05  5.25996224553E-05
  5.33945639483E-05  5.42015194434E-05  5.50206705090E-05  5.58522014576E-05
  5.66962993871E-05  5.75531542232E-05  5.84229587619E-05  5.93059087127E-05
  6.02022027431E-05  6.11120425232E-05  6.20356327707E-05  6.29731812972E-05
  6.39248990552E-05  6.48910001852E-05  6.58717020639E-05  6.68672253536E-05
  6.78777940510E-05  6.89036355385E-05  6.99449806346E-05  7.10020636465E-05
  7.20751224223E-05  7.31643984046E-05  7.42701366853E-05  7.53925860600E-05
  7.65319990847E-05  7.76886321320E-05  7.88627454493E-05  8.00546032171E-05
  8.12644736083E-05  8.24926288489E-05  8.37393452790E-05  8.50049034151E-05
  8.62895880131E-05  8.75936881324E-05  8.89174972010E-05  9.02613130817E-05
  9.16254381386E-05  9.30101793056E-05  9.44158481554E-05  9.58427609693E-05
  9.72912388088E-05  9.87616075875E-05  1.00254198144E-04  1.01769346319E-04
  1.03307393026E-04  1.04868684332E-04  1.06453571534E-04  1.08062411240E-04
  1.09695565443E-04  1.11353401612E-04  1.13036292766E-04  1.14744617562E-04
  1.16478760382E-04  1.18239111414E-04  1.20026066744E-04  1.21840028447E-04
  1.23681404669E-04  1.25550609730E-04  1.27448064207E-04  1.29374195037E-04
  1.31329435606E-04  1.33314225852E-04  1.35329012362E-04  1.37374248470E-04
  1.39450394364E-04  1.41557917184E-04  1.43697291134E-04  1.45868997580E-04
  1.48073525166E-04  1.50311369919E-04  1.52583035365E-04  1.54889032638E-04
  1.57229880597E-04  1.59606105942E-04  1.62018243334E-04  1.64466835514E-04
  1.66952433426E-04  1.69475596340E-04  1.72036891979E-04  1.74636896644E-04
  1.77276195347E-04  1.79955381942E-04  1.82675059257E-04  1.85435839231E-04
  1.88238343052E-04  1.91083201293E-04  1.93971054062E-04  1.96902551135E-04
  1.99878352113E-04  2.02899126564E-04  2.05965554175E-04  2.09078324903E-04
  2.12238139137E-04  2.15445707848E-04  2.18701752752E-04  2.22007006473E-04
  2.25362212707E-04  2.28768126389E-04  2.32225513866E-04  2.35735153062E-04
  2.39297833662E-04  2.42914357285E-04  2.46585537663E-04  2.50312200827E-04
  2.54095185292E-04  2.57935342246E-04  2.61833535740E-04  2.65790642884E-04
  2.69807554044E-04  2.73885173042E-04  2.78024417360E-04  2.82226218344E-04
  2.86491521418E-04  2.90821286293E-04  2.95216487185E-04  2.99678113031E-04
  3.04207167717E-04  3.08804670299E-04  3.13471655235E-04  3.18209172616E-04
  3.23018288403E-04  3.27900084668E-04  3.32855659835E-04  3.37886128930E-04
  3.42992623829E-04  3.48176293516E-04  3.53438304337E-04  3.58779840268E-04
  3.64202103177E-04  3.69706313096E-04  3.75293708494E-04  3.80965546561E-04
  3.86723103482E-04  3.92567674733E-04  3.98500575368E-04  4.04523140313E-04
  4.10636724671E-04  4.16842704024E-04  4.23142474745E-04  4.29537454307E-04
  4.36029081609E-04  4.42618817294E-04  4.49308144080E-04  4.56098567094E-04
  4.62991614209E-04  4.69988836391E-04  4.77091808044E-04  4.84302127367E-04
  4.91621416711E-04  4.99051322949E-04  5.06593517839E-04  5.14249698408E-04
  5.22021587328E-04  5.29910933309E-04  5.37919511484E-04  5.46049123819E-04
  5.54301599511E-04  5.62678795401E-04  5.71182596394E-04  5.79814915880E-04
  5.88577696169E-04  5.97472908923E-04  6.06502555602E-04  6.15668667914E-04
  6.24973308274E-04  6.34418570265E-04  6.44006579111E-04  6.53739492154E-04
  6.63619499341E-04  6.73648823714E-04  6.83829721916E-04  6.94164484689E-04
  7.04655437400E-04  7.15304940557E-04  7.26115390344E-04  7.37089219157E-04
  7.48228896153E-04  7.59536927808E-04  7.71015858476E-04  7.82668270965E-04
  7.94496787117E-04  8.06504068398E-04  8.18692816496E-04  8.31065773932E-04
  8.43625724674E-04  8.56375494762E-04  8.69317952950E-04  8.82456011344E-04
  8.95792626064E-04  9.09330797904E-04  9.23073573010E-04  9.37024043564E-04
  9.51185348481E-04  9.65560674114E-04  9.80153254972E-04  9.94966374448E-04
  1.01000336556E-03  1.02526761168E-03  1.04076254734E-03  1.05649165897E-03
  1.07245848568E-03  1.08866662007E-03  1.10511970905E-03  1.12182145462E-03
  1.13877561475E-03  1.15598600420E-03  1.17345649537E-03  1.19119101921E-03
  1.20919356605E-03  1.22746818655E-03  1.24601899257E-03  1.26485015812E-03
  1.28396592028E-03  1.30337058020E-03  1.32306850400E-03  1.34306412379E-03